# vtk DataFile Version 3.0
vtk output
ASCII
DATASET UNSTRUCTURED_GRID
POINTS 1016 float
395458 6.89584e+06 668.762 395458 6.89584e+06 668.039 395458 6.89584e+06 666.619 
395458 6.89585e+06 670.126 395458 6.89585e+06 671.494 395458 6.89585e+06 672.214 
395458 6.89585e+06 672.936 395458 6.89585e+06 663.924 395458 6.89585e+06 661.23 
395458 6.89585e+06 659.808 395458 6.89585e+06 658.828 395458 6.89586e+06 674.312 
395458 6.89586e+06 675.688 395458 6.89586e+06 676.402 395458 6.89586e+06 677.179 
395458 6.89586e+06 678.648 395458 6.89587e+06 680.127 395458 6.89587e+06 680.893 
395458 6.89587e+06 681.618 395458 6.89587e+06 682.994 395458 6.89587e+06 684.358 
395458 6.89588e+06 685.077 395458 6.89588e+06 685.825 395458 6.89588e+06 688.658 
395458 6.89588e+06 687.768 395458 6.89588e+06 689.4 395458 6.89589e+06 690.204 
395458 6.89588e+06 687.236 395458 6.89589e+06 691.722 395458 6.89589e+06 693.258 
395458 6.89589e+06 694.062 395458 6.89589e+06 694.89 395458 6.8959e+06 696.464 
395458 6.8959e+06 698.035 395458 6.8959e+06 698.862 395458 6.8959e+06 699.647 
395458 6.8959e+06 701.149 395458 6.89591e+06 702.649 395458 6.89591e+06 703.445 
395458 6.89591e+06 704.2 395458 6.89591e+06 705.318 395458 6.89591e+06 705.635 
395458 6.89591e+06 707.08 395458 6.89592e+06 707.845 395458 6.89592e+06 708.696 
395458 6.89592e+06 710.318 395458 6.89592e+06 711.926 395458 6.89592e+06 712.781 
395458 6.89592e+06 713.579 395458 6.89593e+06 715.095 395458 6.89593e+06 716.595 
395458 6.89593e+06 717.384 395458 6.89593e+06 718.01 395458 6.89594e+06 719.219 
395458 6.89594e+06 719.234 395458 6.89597e+06 758.938 395458 6.89597e+06 758.219 
395458 6.89598e+06 760.174 395458 6.89598e+06 762.528 395458 6.89598e+06 764.868 
395458 6.89598e+06 766.101 395458 6.89598e+06 767.258 395458 6.89598e+06 769.437 
395458 6.89598e+06 771.614 395458 6.89599e+06 772.76 395458 6.89599e+06 773.954 
395458 6.89599e+06 776.206 395458 6.89599e+06 778.46 395458 6.89599e+06 779.644 
395458 6.89599e+06 780.602 395458 6.896e+06 782.417 395458 6.896e+06 784.234 
395458 6.896e+06 785.192 395458 6.896e+06 786.223 395458 6.896e+06 788.183 
395458 6.89601e+06 790.14 395458 6.89601e+06 791.168 395458 6.89601e+06 792.171 
395458 6.89601e+06 794.068 395458 6.89601e+06 795.965 395458 6.89601e+06 796.966 
395458 6.89602e+06 797.966 395458 6.89602e+06 799.85 395458 6.89602e+06 801.727 
395458 6.89602e+06 802.714 395458 6.89602e+06 803.64 395458 6.89602e+06 804.102 
395458 6.89604e+06 464.25 395458 6.89604e+06 462.667 395458 6.89604e+06 464.24 
395458 6.89604e+06 459.667 395458 6.89604e+06 456.667 395458 6.89604e+06 455.083 
395458 6.89604e+06 453.5 395458 6.89604e+06 450.496 395458 6.89604e+06 447.494 
395458 6.89604e+06 445.91 395458 6.89604e+06 444.325 395458 6.89604e+06 441.322 
395458 6.89604e+06 438.318 395458 6.89604e+06 436.733 395458 6.89604e+06 435.148 
395458 6.89604e+06 432.144 395458 6.89604e+06 429.139 395458 6.89604e+06 427.553 
395458 6.89604e+06 425.968 395458 6.89604e+06 422.963 395458 6.89604e+06 419.957 
395458 6.89604e+06 418.371 395458 6.89604e+06 416.785 395458 6.89604e+06 413.961 
395458 6.89604e+06 413.779 395458 6.89604e+06 410.772 395458 6.89604e+06 409.186 
395458 6.89604e+06 407.6 395458 6.89605e+06 400 395458 6.89605e+06 400 
395458 6.89605e+06 400 395458 6.89604e+06 400 395458 6.89604e+06 400 
395458 6.89604e+06 400 395458 6.89604e+06 404.594 395458 6.89604e+06 401.587 
395458 6.89584e+06 655.122 395458 6.89584e+06 654.147 395458 6.89584e+06 653.123 
395458 6.89584e+06 656.977 395458 6.89584e+06 651.179 395458 6.89585e+06 649.235 
395458 6.89585e+06 648.211 395458 6.89585e+06 646.926 395458 6.89603e+06 473.333 
395458 6.89603e+06 471.754 395458 6.89603e+06 473.318 395458 6.89604e+06 464.219 
395458 6.89603e+06 464.195 395458 6.89603e+06 464.185 395458 6.89603e+06 468.758 
395458 6.89603e+06 465.765 395458 6.89585e+06 638.534 395458 6.89585e+06 638.399 
395458 6.89585e+06 636.861 395458 6.89585e+06 636.053 395458 6.89585e+06 634.647 
395458 6.89584e+06 642.041 395458 6.89584e+06 640.755 395458 6.89584e+06 639.936 
395458 6.89584e+06 644.478 395458 6.89602e+06 482.388 395458 6.89602e+06 480.811 
395458 6.89602e+06 482.376 395458 6.89602e+06 473.291 395458 6.89602e+06 473.265 
395458 6.89602e+06 473.252 395458 6.89602e+06 477.819 395458 6.89602e+06 474.83 
395458 6.89585e+06 629.32 395458 6.89585e+06 627.915 395458 6.89585e+06 627.458 
395458 6.89585e+06 631.981 395458 6.89586e+06 626.596 395458 6.89586e+06 625.743 
395458 6.89586e+06 625.58 395458 6.89586e+06 625.281 395458 6.89586e+06 623.968 
395458 6.89601e+06 482.351 395458 6.89601e+06 482.348 395458 6.89586e+06 617.821 
395458 6.89586e+06 617.662 395458 6.89586e+06 617.662 395458 6.89586e+06 618.975 
395458 6.89586e+06 617.66 395458 6.89586e+06 621.472 395458 6.89587e+06 617.646 
395458 6.89587e+06 617.639 395458 6.89587e+06 617.638 395458 6.89587e+06 616.184 
395458 6.89587e+06 610.681 395458 6.89587e+06 609.225 395458 6.89587e+06 609.238 
395458 6.89587e+06 613.429 395458 6.89588e+06 609.269 395458 6.89588e+06 609.292 
395458 6.89588e+06 609.305 395458 6.89588e+06 607.716 395458 6.89588e+06 601.69 
395458 6.89588e+06 600.101 395458 6.89588e+06 600.039 395458 6.89588e+06 604.7 
395458 6.89589e+06 599.917 395458 6.89589e+06 599.802 395458 6.89589e+06 599.74 
395458 6.89589e+06 598.116 395458 6.89589e+06 591.966 395458 6.89589e+06 590.342 
395458 6.89589e+06 590.076 395458 6.89589e+06 595.04 395458 6.89589e+06 589.579 
395458 6.8959e+06 589.082 395458 6.8959e+06 588.821 395458 6.8959e+06 587.323 
395458 6.8959e+06 581.656 395458 6.8959e+06 580.16 395458 6.8959e+06 580.042 
395458 6.8959e+06 584.489 395458 6.8959e+06 579.811 395458 6.89591e+06 579.668 
395458 6.89594e+06 720.448 395458 6.89594e+06 721.108 395458 6.89594e+06 721.982 
395458 6.89594e+06 723.642 395458 6.89594e+06 725.309 395458 6.89595e+06 726.19 
395458 6.89595e+06 727.12 395458 6.89595e+06 728.878 395458 6.89595e+06 730.634 
395458 6.89595e+06 731.565 395458 6.89595e+06 732.542 395458 6.89596e+06 734.408 
395458 6.89596e+06 736.275 395458 6.89596e+06 737.259 395458 6.89596e+06 738.384 
395458 6.89596e+06 740.526 395458 6.89596e+06 742.665 395458 6.89596e+06 743.787 
395458 6.89597e+06 745.056 395458 6.89597e+06 747.463 395458 6.89597e+06 749.866 
395458 6.89597e+06 751.138 395458 6.89597e+06 752.476 395458 6.89597e+06 755.014 
395458 6.89597e+06 757.584 395458 6.89602e+06 805.371 395458 6.89603e+06 807.055 
395458 6.89603e+06 807.938 395458 6.89603e+06 808.504 395458 6.89603e+06 809.602 
395458 6.89603e+06 810.716 395458 6.89604e+06 811.319 395458 6.89604e+06 811.905 
395458 6.89604e+06 812.996 395458 6.89604e+06 812.028 395458 6.89604e+06 814.067 
395458 6.89604e+06 814.625 395458 6.89604e+06 815.396 395458 6.89605e+06 816.871 
395458 6.89605e+06 818.372 395458 6.89605e+06 819.153 395458 6.89605e+06 819.571 
395458 6.89601e+06 491.453 395458 6.89601e+06 489.876 395458 6.89601e+06 491.442 
395458 6.89601e+06 482.326 395458 6.89601e+06 482.314 395458 6.89601e+06 486.886 
395458 6.89601e+06 483.892 395458 6.896e+06 500.532 395458 6.896e+06 498.951 
395458 6.896e+06 500.518 395458 6.896e+06 491.42 395458 6.896e+06 491.399 
395458 6.896e+06 491.387 395458 6.896e+06 495.96 395458 6.896e+06 492.966 
395458 6.89599e+06 509.568 395458 6.89599e+06 507.995 395458 6.89599e+06 509.544 
395458 6.89599e+06 500.491 395458 6.89599e+06 500.464 395458 6.89599e+06 500.45 
395458 6.89599e+06 505.009 395458 6.89599e+06 502.023 395458 6.89598e+06 518.521 
395458 6.89598e+06 516.954 395458 6.89598e+06 518.499 395458 6.89598e+06 509.504 
395458 6.89598e+06 509.46 395458 6.89598e+06 509.437 395458 6.89598e+06 513.98 
395458 6.89598e+06 511.005 395458 6.89597e+06 527.467 395458 6.89597e+06 525.896 
395458 6.89597e+06 527.444 395458 6.89597e+06 518.452 395458 6.89597e+06 518.408 
395458 6.89597e+06 518.383 395458 6.89597e+06 522.923 395458 6.89597e+06 519.95 
395458 6.89591e+06 579.581 395458 6.89591e+06 579.464 395458 6.89591e+06 578.019 
395458 6.89596e+06 536.429 395458 6.89596e+06 534.859 395458 6.89596e+06 536.403 
395458 6.89596e+06 527.405 395458 6.89596e+06 527.365 395458 6.89596e+06 527.342 
395458 6.89596e+06 531.886 395458 6.89596e+06 528.913 395458 6.89591e+06 572.534 
395458 6.89591e+06 571.089 395458 6.89591e+06 571.066 395458 6.89591e+06 575.28 
395458 6.89591e+06 571.022 395458 6.89592e+06 570.973 395458 6.89592e+06 570.949 
395458 6.89592e+06 569.487 395458 6.89595e+06 545.399 395458 6.89595e+06 543.825 
395458 6.89595e+06 545.372 395458 6.89595e+06 536.358 395458 6.89595e+06 536.317 
395458 6.89595e+06 536.291 395458 6.89595e+06 540.845 395458 6.89595e+06 537.865 
395458 6.89592e+06 563.951 395458 6.89592e+06 562.488 395458 6.89592e+06 562.562 
395458 6.89592e+06 566.719 395458 6.89592e+06 562.699 395458 6.89593e+06 562.835 
395458 6.89593e+06 562.905 395458 6.89593e+06 561.366 395458 6.89594e+06 554.345 
395458 6.89594e+06 552.775 395458 6.89594e+06 554.287 395458 6.89594e+06 545.317 
395458 6.89594e+06 545.262 395458 6.89594e+06 545.235 395458 6.89594e+06 549.791 
395458 6.89594e+06 546.805 395458 6.89593e+06 555.539 395458 6.89593e+06 554.004 
395458 6.89593e+06 554.063 395458 6.89593e+06 558.452 395458 6.89593e+06 554.172 
395458 6.89611e+06 400 395458 6.89612e+06 400 395458 6.89612e+06 401.328 
395458 6.89611e+06 400 395458 6.89611e+06 400 395458 6.89611e+06 400 
395458 6.8961e+06 400 395458 6.89612e+06 403.847 395458 6.89612e+06 406.365 
395458 6.89612e+06 407.693 395458 6.89612e+06 409.022 395458 6.8961e+06 400 
395458 6.8961e+06 400 395458 6.8961e+06 400 395458 6.8961e+06 400 
395458 6.89609e+06 400 395458 6.89609e+06 400 395458 6.89609e+06 400 
395458 6.89609e+06 400 395458 6.89608e+06 400 395458 6.89608e+06 400 
395458 6.89608e+06 400 395458 6.89608e+06 400 395458 6.89607e+06 400 
395458 6.89607e+06 400 395458 6.89607e+06 400 395458 6.89607e+06 400 
395458 6.89606e+06 400 395458 6.89606e+06 400 395458 6.89606e+06 400 
395458 6.89606e+06 400 395458 6.89605e+06 400 395458 6.89612e+06 636.62 
[...]
POINT_DATA 1016
FIELD FieldData 1
p_potential 1 1016 float
3.90872e-27 -4.80775e-27 -8.82719e-27 6.71868e-27 9.03701e-27 1.657e-26 4.77351e-27 -8.71626e-27 -8.82442e-27 
-1.34193e-26 6.27635e-27 7.99882e-27 1.04112e-26 1.81032e-26 4.72898e-27 7.82029e-27 9.30323e-27 1.69504e-26 
5.41117e-27 8.55908e-27 1.08526e-26 1.83572e-26 5.67149e-27 1.22009e-26 1.03448e-26 1.83749e-26 6.70564e-27 
9.37215e-27 1.03742e-26 1.25075e-26 1.79586e-26 8.09001e-27 1.1731e-26 1.42973e-26 1.84882e-26 1.09299e-26 
1.47033e-26 1.71405e-26 1.47034e-26 1.40515e-26 1.55003e-26 1.55287e-26 1.6467e-26 1.91667e-26 8.54549e-27 
1.10227e-26 1.23692e-26 2.04659e-26 7.15144e-27 1.01329e-26 1.14966e-26 1.8432e-26 6.46871e-27 7.62557e-27 
7.65397e-27 9.96805e-27 4.65843e-27 -1.60904e-27 1.137e-27 3.40189e-27 1.21862e-26 7.1961e-28 3.40638e-27 
5.93245e-27 1.47446e-26 1.95468e-27 5.0167e-27 6.76635e-27 1.40787e-26 6.59284e-27 1.03145e-26 1.42498e-26 
1.06509e-26 9.50856e-27 1.11519e-26 1.25481e-26 1.20809e-26 7.9307e-27 7.95835e-27 8.40468e-27 1.47744e-26 
3.31728e-27 3.20233e-27 3.10476e-27 1.23661e-26 -2.38974e-27 -2.17794e-27 -9.65059e-27 -1.8705e-27 -4.28439e-27 
-2.35917e-27 -2.76368e-27 -8.59604e-27 -9.21747e-28 -1.55872e-27 -1.95464e-27 -7.70861e-27 -1.30645e-28 -5.95539e-28 
-9.82268e-28 -6.66122e-27 8.23345e-28 3.69182e-28 -9.06764e-30 -5.6162e-27 1.78699e-27 1.3238e-27 9.99176e-28 
-4.3484e-27 2.69944e-27 2.36519e-27 2.30829e-27 1.36855e-27 -4.34307e-27 2.76309e-27 -3.9652e-28 1.64048e-27 
-7.85143e-28 -3.24517e-28 -5.95194e-28 2.14968e-28 8.93014e-28 1.8718e-27 3.65008e-27 -5.4984e-27 -8.68981e-27 
4.60791e-27 -9.68516e-27 -1.1314e-26 -1.27857e-26 2.00734e-27 -1.10168e-26 -3.16766e-27 -5.82651e-27 -5.00659e-27 
-5.85587e-27 -1.01193e-26 -3.81982e-27 -4.23038e-27 -1.31867e-26 -1.32977e-26 -1.45269e-26 -1.29908e-26 -3.51902e-29 
-7.05262e-28 -1.2137e-26 -1.09431e-26 6.80088e-28 -1.23621e-26 -4.44369e-27 -7.02532e-27 -6.54814e-27 -7.22891e-27 
-1.14904e-26 -5.10548e-27 -5.52772e-27 -2.19728e-27 -1.679e-26 -1.25282e-26 -1.02191e-27 -1.28195e-26 -1.29791e-26 
-9.89145e-27 -5.94109e-27 3.83504e-27 -7.74257e-27 -7.8247e-27 -9.95934e-27 -1.16313e-26 -1.13746e-26 1.84974e-27 
-8.04506e-27 3.33551e-27 -7.31426e-27 -6.82843e-27 -2.99593e-27 3.80194e-27 1.86812e-27 -8.26074e-27 -4.51425e-27 
2.62725e-27 -3.48957e-27 -2.78685e-27 4.21915e-28 2.5713e-27 4.08911e-28 -7.45361e-27 -3.25649e-27 1.45305e-27 
-2.87559e-27 -2.22832e-27 1.80961e-27 -2.85998e-28 -2.53457e-27 -9.97403e-27 -6.40836e-27 -1.25868e-27 -7.20508e-27 
-7.90949e-27 -3.76149e-27 -3.10957e-27 -5.39757e-27 -1.4889e-26 -1.07041e-26 -4.23218e-27 -1.15864e-26 -1.2245e-26 
1.35711e-26 2.27914e-26 2.93533e-28 5.05287e-27 8.09449e-27 2.18926e-26 -2.30695e-28 4.62471e-27 7.85516e-27 
2.06961e-26 -3.94715e-28 3.50622e-27 6.2644e-27 1.91431e-26 -3.72452e-27 -2.01019e-28 2.84306e-27 1.55487e-26 
-7.21368e-27 -3.01606e-27 -1.94984e-28 1.11751e-26 -5.31753e-27 -1.95095e-27 2.50377e-28 -7.11026e-29 1.74382e-27 
1.21837e-26 -5.6192e-28 3.31744e-27 6.8424e-27 1.80722e-26 4.08414e-27 1.30509e-26 5.08084e-27 2.38682e-26 
1.81304e-26 1.86528e-26 1.86201e-26 1.66845e-26 2.69711e-26 -6.5135e-27 -1.25394e-26 -4.72797e-27 -7.21857e-27 
-8.26989e-27 -1.25184e-26 -5.57334e-27 -6.333e-27 -1.25755e-26 -4.68378e-27 -7.26046e-27 -7.77874e-27 -8.29903e-27 
-1.25423e-26 -5.53414e-27 -6.30055e-27 -1.2738e-26 -4.65059e-27 -7.3998e-27 -7.84066e-27 -8.37858e-27 -1.26331e-26 
-5.51202e-27 -6.28671e-27 -1.27926e-26 -4.60339e-27 -7.47696e-27 -7.97367e-27 -8.49988e-27 -1.27532e-26 -5.48104e-27 
-6.27486e-27 -1.28484e-26 -4.57666e-27 -7.53899e-27 -8.04689e-27 -8.58279e-27 -1.28321e-26 -5.46201e-27 -6.26979e-27 
-1.23094e-26 -7.88858e-27 -4.60938e-27 -1.28664e-26 -4.55108e-27 -7.58064e-27 -8.122e-27 -8.66409e-27 -1.28963e-26 
-5.4495e-27 -6.2727e-27 -6.92898e-27 -1.64614e-26 -1.20561e-26 -5.88662e-27 -1.16482e-26 -1.14045e-26 -6.9703e-27 
-4.49851e-27 -1.3024e-26 -4.5649e-27 -7.6942e-27 -8.16969e-27 -8.72873e-27 -1.29695e-26 -5.46462e-27 -6.28422e-27 
-6.63477e-27 -1.53619e-26 -1.06484e-26 -5.64318e-27 -9.68998e-27 -8.81939e-27 -4.28517e-27 -4.67565e-27 -1.28602e-26 
-4.53033e-27 -8.03099e-27 -8.31428e-27 -8.781e-27 -1.27497e-26 -5.37577e-27 -6.19875e-27 -6.51188e-27 -1.38472e-26 
-9.40867e-27 -5.58848e-27 -8.64155e-27 -2.25865e-27 7.31984e-29 2.49619e-27 -1.88523e-27 -2.41834e-27 -9.90809e-28 
-2.194e-27 1.97805e-27 2.67826e-27 1.51189e-27 2.21918e-27 -2.06521e-27 -2.47167e-27 -1.21387e-27 -2.30375e-27 
-2.08828e-27 -2.39717e-27 -1.21095e-27 -2.0117e-27 -1.503e-27 -1.52237e-27 -4.53752e-28 -1.08872e-27 -8.45799e-28 
-1.0403e-27 -1.49105e-28 -7.28695e-28 -5.76482e-28 -8.6708e-28 -1.72652e-29 -5.68649e-28 -4.622e-28 2.92274e-27 
1.61573e-27 1.42097e-27 1.62355e-27 -7.50951e-27 2.87197e-27 1.4237e-27 1.61021e-27 -7.18136e-27 2.82455e-27 
1.42502e-27 1.60198e-27 -6.85527e-27 2.77351e-27 1.42837e-27 1.5908e-27 -6.54897e-27 2.72751e-27 1.43114e-27 
1.57906e-27 -6.24688e-27 2.68027e-27 1.43319e-27 1.56822e-27 -5.95656e-27 2.6346e-27 1.43427e-27 1.5595e-27 
-5.66473e-27 2.58689e-27 1.43387e-27 1.5499e-27 -5.38996e-27 2.54019e-27 1.43581e-27 1.53962e-27 -5.1305e-27 
2.49676e-27 1.4371e-27 1.52938e-27 -4.8817e-27 2.45494e-27 1.43812e-27 1.51906e-27 -4.64301e-27 2.41574e-27 
1.43763e-27 1.5099e-27 -4.40891e-27 2.3747e-27 1.43777e-27 1.49946e-27 -4.18739e-27 2.33738e-27 1.43808e-27 
1.49002e-27 -3.97556e-27 2.30121e-27 1.43823e-27 1.481e-27 -3.77203e-27 2.26622e-27 1.43832e-27 1.47248e-27 
-3.57641e-27 2.23268e-27 1.43697e-27 1.46427e-27 -3.38662e-27 2.19736e-27 1.43606e-27 1.45597e-27 -3.20583e-27 
2.16585e-27 1.43593e-27 1.44906e-27 -3.03254e-27 2.13567e-27 1.43603e-27 1.44322e-27 -2.86534e-27 2.10727e-27 
1.43656e-27 1.43871e-27 -2.70405e-27 2.08059e-27 1.43647e-27 1.43551e-27 -2.54783e-27 2.0541e-27 1.43841e-27 
1.43617e-27 -2.39728e-27 2.0351e-27 1.44463e-27 1.44419e-27 -2.25429e-27 2.02507e-27 1.45902e-27 1.52667e-27 
1.47819e-27 -2.10875e-27 2.04721e-27 1.51475e-27 1.56238e-27 -1.95426e-27 2.13502e-27 1.63321e-27 1.74853e-27 
-1.76616e-27 2.34498e-27 1.89216e-27 2.12679e-27 -1.45836e-27 2.64467e-27 2.10041e-27 2.2323e-27 -1.39819e-27 
2.69822e-27 2.11037e-27 8.5327e-27 -2.70979e-27 -8.83266e-28 1.78869e-27 3.58959e-27 1.84917e-27 5.90068e-27 
-1.66784e-27 1.27301e-27 7.284e-27 7.76943e-27 -1.86643e-26 5.35216e-27 8.36065e-27 1.47807e-26 -2.53387e-26 
7.01221e-27 1.58327e-26 1.7313e-26 -2.43972e-26 1.07765e-26 1.84975e-26 1.36518e-26 6.86577e-27 6.95045e-27 
1.34297e-26 1.7619e-26 -1.09191e-26 7.53483e-27 1.56921e-26 1.58093e-26 -8.31005e-27 -2.254e-26 1.77119e-26 
2.18393e-26 7.74998e-27 -2.60086e-27 1.97715e-26 -3.17714e-27 3.02016e-26 1.39634e-26 1.74199e-27 -1.10238e-26 
-1.86898e-26 -3.2335e-26 1.82997e-26 1.7209e-26 1.75312e-26 -3.44579e-26 2.77022e-26 2.52837e-26 2.81723e-26 
-3.44886e-28 2.32793e-26 2.66057e-26 2.64556e-26 2.5087e-26 1.36334e-26 2.2121e-26 1.0081e-26 7.72233e-27 
2.09715e-26 9.06548e-27 9.34304e-27 3.85142e-27 9.43095e-27 2.20331e-26 9.00561e-27 9.01235e-27 3.13008e-27 
1.05608e-26 9.40162e-27 9.97621e-27 1.91619e-27 1.07723e-26 8.57746e-27 7.93413e-27 -5.16655e-28 8.21241e-27 
6.15582e-27 5.90542e-27 -2.97446e-27 6.50184e-27 4.51901e-27 4.63448e-27 -5.49265e-27 5.4288e-27 3.50791e-27 
3.64511e-27 -7.36915e-27 4.86324e-27 2.76473e-27 2.99625e-27 -8.66097e-27 4.37296e-27 2.29126e-27 2.53065e-27 
-9.83302e-27 4.09709e-27 1.97497e-27 2.2071e-27 -1.04244e-26 3.92521e-27 1.73873e-27 1.96374e-27 -1.07632e-26 
3.72006e-27 1.62072e-27 1.83965e-27 -1.12412e-26 3.73879e-27 1.49472e-27 1.74179e-27 -1.10859e-26 3.54434e-27 
1.46986e-27 1.69006e-27 -1.12083e-26 3.54929e-27 1.42592e-27 1.63952e-27 -1.10817e-26 3.48831e-27 1.397e-27 
1.62301e-27 -1.09555e-26 3.42039e-27 1.40323e-27 1.65477e-27 -1.10126e-26 3.47376e-27 1.37769e-27 1.673e-27 
-1.06798e-26 3.37318e-27 1.40163e-27 1.66533e-27 -1.05198e-26 3.37523e-27 1.3915e-27 1.68629e-27 -1.02245e-26 
3.31317e-27 1.40306e-27 1.69274e-27 -9.93713e-27 3.26418e-27 1.41216e-27 1.69516e-27 -9.65597e-27 3.23047e-27 
1.41159e-27 1.68855e-27 -9.27475e-27 3.16162e-27 1.41782e-27 1.67379e-27 -8.90962e-27 3.1058e-27 1.41427e-27 
1.66681e-27 -8.53177e-27 3.03589e-27 1.41707e-27 1.65251e-27 -8.1777e-27 2.97595e-27 1.41916e-27 1.63812e-27 
-7.84461e-27 3.87118e-27 -1.90203e-27 7.9132e-27 3.59189e-27 4.07256e-27 1.03729e-26 9.98509e-28 2.9958e-27 
4.95235e-27 1.22486e-26 2.58494e-27 4.91897e-27 6.99162e-27 8.16049e-29 -7.44275e-28 -4.79121e-28 -4.06447e-28 
-4.79966e-28 1.43258e-27 -7.02563e-28 -5.24659e-28 -4.20385e-28 -7.20991e-28 1.41057e-28 -4.93602e-28 -3.96995e-28 
-6.9793e-28 1.44765e-28 -4.85889e-28 -3.96279e-28 -6.9562e-28 1.4512e-28 -4.85502e-28 -3.96279e-28 -6.9637e-28 
1.45591e-28 -4.86883e-28 -3.97797e-28 -6.98438e-28 1.4497e-28 -4.89472e-28 -4.00655e-28 -7.01994e-28 1.42905e-28 
-4.93508e-28 -4.04762e-28 -7.06653e-28 1.39971e-28 -4.98461e-28 -4.09572e-28 -7.11899e-28 1.3669e-28 -5.03835e-28 
-4.14773e-28 -7.17559e-28 1.33061e-28 -5.09433e-28 -4.19954e-28 -7.23012e-28 1.29703e-28 -5.14464e-28 -4.24172e-28 
-7.27081e-28 1.27644e-28 -5.16687e-28 -4.28006e-28 -7.24223e-28 1.39858e-28 -5.40623e-28 -4.43786e-28 -7.47714e-28 
1.28588e-28 -5.23559e-28 -4.24945e-28 -7.2994e-28 1.30413e-28 -5.17348e-28 -4.2488e-28 -7.27188e-28 1.29188e-28 
-5.14984e-28 -4.22464e-28 -7.24515e-28 1.29569e-28 -5.11747e-28 -4.19498e-28 -7.2121e-28 1.29061e-28 -5.07896e-28 
-4.15999e-28 -7.17086e-28 1.27878e-28 -5.03146e-28 -4.11775e-28 -7.11883e-28 1.26091e-28 -4.97586e-28 -4.07469e-28 
-7.06746e-28 1.18395e-28 -4.93921e-28 -4.0592e-28 1.19685e-27 -4.84116e-28 3.64792e-27 1.29353e-26 1.29681e-27 
3.73942e-27 6.081e-27 1.46851e-26 3.30735e-27 5.53417e-27 7.94537e-27 1.69068e-26 4.05393e-27 6.82167e-27 
9.16887e-27 1.84986e-26 5.45719e-27 7.92534e-27 1.0138e-26 1.90008e-26 1.79529e-26 6.107e-27 7.82455e-27 
9.17475e-27 1.73692e-26 5.08638e-27 6.79577e-27 8.44588e-27 1.66855e-26 3.44194e-27 4.97931e-27 5.76563e-27 
1.28111e-26 2.71896e-27 4.13794e-27 5.01528e-27 1.09005e-26 3.63133e-27 5.54951e-27 7.82023e-27 7.92791e-27 
1.48182e-26 3.13386e-27 5.06925e-27 5.99382e-27 1.24258e-26 2.35695e-27 3.6634e-27 4.7521e-27 1.21153e-26 
5.06622e-28 3.70168e-27 6.62319e-27 1.51908e-26 2.87275e-27 9.86769e-27 1.75336e-26 1.8113e-26 1.5408e-26 
1.55886e-26 1.34154e-26 1.82382e-26 7.70939e-27 7.69469e-27 -4.05688e-28 -7.03008e-28 1.102e-28 -4.91439e-28 
-4.05657e-28 -7.09416e-28 1.17104e-28 -5.13881e-28 -4.28287e-28 -7.34908e-28 1.04134e-28 -5.24761e-28 -4.39809e-28 
-7.49558e-28 9.93933e-29 -5.42316e-28 -4.58262e-28 -7.71251e-28 8.75803e-29 -5.67621e-28 -4.84658e-28 -8.00906e-28 
6.7626e-29 -6.0253e-28 -5.17608e-28 -8.43233e-28 2.59588e-29 -6.20531e-28 -5.43144e-28 -8.61519e-28 6.07649e-30 
-6.81914e-28 -6.02908e-28 -9.18884e-28 -2.77391e-29 -7.27496e-28 -6.36662e-28 -9.50704e-28 -5.16444e-29 -7.55845e-28 
-6.58924e-28 -9.66521e-28 -6.63812e-29 -7.68333e-28 -6.67517e-28 -9.69875e-28 -7.21067e-29 -7.6989e-28 -6.67547e-28 
-9.66847e-28 -7.23649e-29 -7.66506e-28 -6.63403e-28 -9.61016e-28 -6.8144e-29 -7.60189e-28 -6.55466e-28 -9.5159e-28 
-5.78126e-29 -7.49032e-28 -6.42221e-28 -9.37214e-28 -4.09084e-29 -7.3287e-28 -6.2085e-28 -9.21321e-28 -3.05554e-29 
-6.86003e-28 -5.79271e-28 -8.70956e-28 1.20198e-29 -6.70841e-28 -5.64342e-28 -8.55599e-28 3.95307e-29 -6.41022e-28 
-5.27232e-28 -8.2137e-28 6.41847e-29 -6.04504e-28 -4.92878e-28 -7.89269e-28 8.80466e-29 -5.5576e-28 -4.87627e-28 
-6.85532e-28 -2.92639e-28 -6.23238e-29 3.9225e-28 6.73163e-28 3.16599e-27 1.64151e-27 3.43327e-28 5.77128e-28 
3.10824e-28 2.77855e-27 -3.03335e-28 -1.09622e-28 -3.84517e-28 2.19113e-27 -1.01196e-27 -8.24501e-28 -1.07607e-27 
1.60524e-27 -1.73706e-27 -1.54091e-27 -1.75733e-27 1.04441e-27 -2.44129e-27 -2.32455e-27 7.56168e-27 -1.33611e-27 
-2.59687e-27 4.03881e-27 5.29663e-27 1.07721e-26 6.38046e-28 -1.50723e-27 -1.53642e-27 -2.05072e-27 -7.29082e-28 
1.46646e-26 6.83382e-27 1.49357e-27 3.19234e-27 5.7502e-27 5.11954e-27 7.68826e-27 1.63556e-26 3.9265e-27 
9.26265e-27 1.36117e-26 1.65045e-26 4.6434e-27 8.71481e-27 1.13649e-26 1.94839e-26 3.10506e-27 7.36277e-27 
9.51681e-27 1.81558e-26 4.56715e-27 8.60604e-27 1.16917e-26 1.98391e-26 3.86239e-27 8.21316e-27 1.11605e-26 
1.91313e-26 5.70955e-27 1.18516e-26 1.83782e-26 1.99175e-26 4.64686e-27 5.35402e-27 6.63579e-27 5.92784e-27 
1.61744e-26 9.39474e-28 6.61e-28 -1.00225e-26 5.54453e-27 2.44903e-27 3.89433e-27 1.36633e-26 -2.21849e-28 
1.54024e-27 3.38375e-27 1.3117e-26 -1.55332e-27 -2.08851e-27 -2.06464e-27 1.0017e-27 -2.4896e-27 -1.96334e-27 
-1.9223e-27 1.25891e-27 -2.36015e-27 -1.81357e-27 -1.74362e-27 1.51847e-27 -2.19257e-27 -1.62506e-27 -1.49983e-27 
1.75822e-27 -1.94428e-27 -1.36791e-27 -1.16035e-27 1.90496e-27 -1.58333e-27 -1.02915e-27 3.01904e-27 
